<?xml version="1.0"?>
<VTKFile type="UnstructuredGrid"  version="0.1"  >
<UnstructuredGrid>
<Piece  NumberOfPoints="4052" NumberOfCells="7821">
<Points>
<DataArray  type="Float64"  NumberOfComponents="3"  format="ascii">0 1 0  -0 0.1 0  0.006279051952931353 0.09980267284282716 0  0.01253332335643045 0.09921147013144778 0  0.01873813145857247 0.09822872507286887 0  0.02486898871648548 0.09685831611286311 0  0.03090169943749475 0.09510565162951536 0  0.03681245526846781 0.09297764858882514 0  0.04257792915650727 0.09048270524660196 0  0.04817536741017152 0.08763066800438638 0  0.05358267949789966 0.08443279255020152 0  0.05877852522924733 0.08090169943749474 0  0.06374239897486898 0.07705132427757894 0  0.06845471059286887 0.07289686274214116 0  0.07289686274214116 0.06845471059286887 0  0.07705132427757894 0.06374239897486897 0  0.08090169943749476 0.05877852522924731 0  0.08443279255020152 0.05358267949789967 0  0.08763066800438636 0.04817536741017153 0  0.09048270524660196 0.04257792915650727 0  0.09297764858882515 0.03681245526846779 0  0.09510565162951536 0.03090169943749474 0  0.09685831611286311 0.02486898871648548 0  0.09822872507286888 0.01873813145857246 0  0.09921147013144779 0.01253332335643043 0  0.09980267284282716 0.006279051952931338 0  0.1 0 0  1 0 0  1 1 0  0.5 1 0  1 0.5 0  0.55 0 0  0 0.55 0  0.4986842105263158 0.4986842105263158 0  0.7486876550013779 0.7486876550013779 0  0.2725563909774436 0.749937343358396 0  0.749937343358396 0.2725563909774436 0  0.2304402234055765 0.3406545866984559 0  0.4993454029811371 0.2467698852394143 0  0.25 1 0  1 0.75 0  0.75 1 0  1 0.25 0  0.5106549095251218 0.7618422692857798 0  0.736782729073994 0.5105891364536997 0  0.325 0 0  0 0.325 0  0.775 0 0  0 0.775 0  0.2099239891487248 0.5495740610803221 0  0.8749931469765426 0.625 0  0.8736944724244707 0.8736944724244707 0  0.2339826755572725 0.1581865432985211 0  0.397643555267085 0.6351317060060406 0  0.375 1 0  1 0.375 0  0.6363066971941131 0.1463001174615738 0  0.6237172615162874 0.3849608391673591 0  0.6116955647843525 0.6253947738060549 0  0.625 1 0  0.125 1 0  0.8645399347151193 0.1456640587563927 0  0.3424957080372453 0.4571257197342906 0  0.1291361365038822 0.6847987802190676 0  0.1439589101931099 0.8426210352795072 0  0 0.4375 0  0.3871701679775181 0.1410494837230635 0  0.8656640133595905 0.4375 0  0 0.2125 0  0.3726617677623451 0.3159641267564832 0  0.6348375201512751 0.8487480367273977 0  0.4375 0.8778866104573971 0  0.1314110835104651 0.2474636169944869 0  0.4983536097439834 0.3727253124576426 0  0.5123032836840816 0.120845865074902 0  0.8789239749768363 0.3051271273244827 0  0.265228083560257 0.8753249632616968 0  1 0.125 0  1 0.625 0  1 0.875 0  0.875 1 0  0.1352658466978828 0.436775408243069 0  0.8756459285644895 0.7493540358351459 0  0.753461909618609 0.8689202178072396 0  0.6306383897641965 0.2656635216803609 0  0.3916904877605716 0.7541930561363105 0  0.7313414272876746 0.6302080839650394 0  0.6176486322908661 0.5063334236757852 0  0.742735274050127 0.3915382369310418 0  0.7503383987093257 0.1155117279737728 0  0.2125 0 0  0.4375 0 0  0 0.8875 0  0 0.6625000000000001 0  0.8875 0 0  0.6625000000000001 0 0  0.6202737097505222 0.73738149700328 0  0.5036568834506555 0.608001047725674 0  0.2880436342643727 0.2505044964060542 0  0.1050205503445402 0.5786462408529814 0  0.2299517597042433 0.6532844001834361 0  0.2391277500922793 0.4444356087006771 0  0.3174168097892749 0.5624410281868076 0  0.5418138208476888 0.9015478253383676 0  0.4072126747904323 0.5281805644664292 0  0.0990923602281141 0.3428168311720388 0  0.8346709533343765 0.5330241587477063 0  0.1875 0.9290985981549904 0  0.1390868549076889 0.1390868549076889 0  0.6824238813237909 0.9277889835459552 0  0.26875 0.07291292403459587 0  0.4112691445187892 0.3980184974561009 0  0.8125 0.9374865057192414 0  0.8124896676056745 0.6875068357810726 0  0.9374965734882713 0.5625 0  0.9374966267953732 0.8125 0  0.936207828651707 0.936207828651707 0  0.06793618395711321 0.49375 0  1 0.6875 0  0.3731250265387274 0.2279435265287277 0  0.3298326696827137 0.8161928304772937 0  0.3509547990086576 0.9041275457687101 0  0.8232536980856018 0.07069057441245478 0  0.7906603197353244 0.1941375443350976 0  0.913974474391699 0.221585192880964 0  0.8159886583808208 0.8106032789522666 0  0.5572224219442964 0.3102072365488286 0  0.585820009375925 0.07747620896608076 0  0.5627899715022697 0.189669773570395 0  0.6937698504991281 0.2088452070189226 0  0.3342818391511077 0.6916431219530396 0  0.4550522038765488 0.6976816401893116 0  0.551345454408368 0.6863394748601788 0  0.6793547363155398 0.4485807208921703 0  0.5555003164043113 0.4355552039952097 0  0.6868594760732185 0.3284471322003629 0  0.9238867218593627 0.08037695032657358 0  0.0625 1 0  0.08687660705400899 0.9128463294144394 0  0.6738910946757016 0.5688250485478247 0  0.2986170991438435 0.3872016171987264 0  0.8222288363393183 0.3662984721426986 0  0.0911620551811078 0.7679725418319597 0  0.1818770255657337 0.759133996361141 0  0.1888224840023903 0.07642045418256835 0  0.07657739947558981 0.1891198289420665 0  0.2100141784021913 0.2342102803927 0  0.3132276604753005 0.1737689512194791 0  0.6885351166248667 0.6969848128775642 0  0.4426135895862874 0.1945932122077106 0  0.3465074036337838 0.07474628157076517 0  0.566250018341088 0.5634429947310939 0  0 0.26875 0  0.5766461644323301 0.7997223822208637 0  0.6806875496153864 0.7861165091157878 0  0.06111524268266403 0.8395840169914568 0  0.4416711194686974 0.08099254152260515 0  0.6791673432680594 0.07847894936093386 0  0.7979830066874174 0.4683306911397416 0  0.9187425073091731 0.3759663712124485 0  1 0.3125 0  1 0.4375 0  0.9243918299803262 0.4868911114294811 0  0.1704624275002771 0.6109835615475714 0  0.1413457220102358 0.5122309686436584 0  0.4310292552637188 0.2722597998627808 0  0.8027187753840952 0.6152329887630851 0  0.5015701589523575 0.8371959725193641 0  0.6094943240919393 0.9287316137105981 0  0.2328953503480202 0.8105273072236386 0  0.8447894908372526 0.2416820214436413 0  0.284885794210777 0.4990506740817662 0  0.9221568389137804 0.6869311511259557 0  0.05945811502081506 0.7032420230473162 0  0.3125 1 0  0.4377350930858506 0.8074700641506847 0  0.4092233201462995 0.940465108118945 0  0.4797705155012656 0.9333027917566784 0  0.295413156040836 0.3186919539219819 0  0 0.38125 0  0.06770196067691947 0.4088445217899102 0  0.9350848921241662 0.1537848366002334 0  0.1642727546105593 0.3117552611939169 0  0.1904678267807919 0.396254810852778 0  0.49375 0 0  0 0.6062500000000001 0  0.28125 0.9405494296215232 0  0.4694524255120915 0.4357810514778665 0  0.06516712542008556 0.2547829054197185 0  0.08003486267293934 0.6401379969392129 0  0.5625 1 0  0.7473704202216473 0.9338653390050878 0  0.3327441148760871 0.6261420831328772 0  0.4073662006378155 0.4630411061025426 0  0.4340880971458162 0.337172201224077 0  0.8121836908052976 0.3001294674116101 0  0.5250942049961811 0.05853337282236735 0  0.2591395663813264 0.5938588909854232 0  0.4940630815938962 0.309709909772158 0  0.2023096098710221 0.8674418623806036 0  0.5612212738868572 0.3729479885571361 0  0.4413271809478079 0.5851365077293895 0  0.9410895946141453 0.2820852842309691 0  0.9374965734882713 0.6250034266056566 0  0.4375 1 0  1 0.0625 0  1 0.8125 0  1 0.5625 0  0.8125 1 0  0.6875 1 0  0.1875 1 0  1 0.9375 0  0.9375 1 0  1 0.1875 0  0.9378360775319806 0.7471525961568534 0  0.3862636652797206 0.8425068869411676 0  0.71875 0 0  0.9381327112541133 0.8743672545066261 0  0.8743406271253783 0.9355616739507995 0  0.7562647611381207 0.5714085797915306 0  0.8140733271370152 0.749059771216365 0  0 0.94375 0  0.6156698780268253 0.4453964779777345 0  0.8767201683398869 0.8129913874269008 0  0.5711899587111018 0.2504550759876302 0  0.6926246228674828 0.8678025729072103 0  0.7377670157969483 0.8093323678394977 0  0.8136014180737937 0.8707224060535723 0  0.5022518359642655 0.1811487802623847 0  0.746875 0.05438382329437283 0  0.7483598271241242 0.6882260619625375 0  0.6714841951720003 0.6286540555237484 0  0.616222425677022 0.3246765942283796 0  0.6903059582063926 0.268796833558722 0  0.6340850058828411 0.2060109040731737 0  0.3321537666532368 0.7512162200809438 0  0.395515482769214 0.6947048041339449 0  0.5580463923523269 0.5043755695361543 0  0.6772268506091894 0.5081485899925851 0  0.6831793955853223 0.3890976904699271 0  0.7463504007190528 0.3320481669555255 0  0.7409102364363476 0.4511212484360851 0  0.1849740565770197 0.4707428654843637 0  0.1796493097983441 0.1828467307328437 0  0.8058228773735477 0.1367095668913244 0  0.6946157617552289 0.135695629905689 0  0.38125 0 0  0.2231074197956162 0.7140179215894348 0  0 0.15625 0  0.5799287280132485 0.134727379131579 0  0.15625 0 0  0.4562477168518259 0.1376758539425969 0  0.2759556394201925 0.6892212097894544 0  0.4564109524831979 0.6404064807728521 0  0.3541282266248315 0.4010967567816464 0  0.94375 0 0  0.6062500000000001 0 0  0 0.49375 0  0.26875 0 0  0 0.83125 0  0.83125 0 0  0 0.71875 0  0.7389264652095522 0.1710162612193479 0  0.5643666174852343 0.7446926722793197 0  0.632473671127214 0.6801250810106914 0  0.4549677650212633 0.7539282618385155 0  0.9208736401886721 0.4314640622603904 0  0.2811345653436373 0.1276866833442084 0  0.8672842820464708 0.6797950284714432 0  0.5575522720318788 0.6174678216991296 0  0.4881311903430982 0.5539357715677495 0  0.04874556469237357 0.578125 0  0.2404256593806047 0.2835564665148999 0  0.3717848541590204 0.5830538695175584 0  0.3381820644935781 0.5117421978408342 0  0.6197865036680674 0.5718150784460083 0  0.5780704112783077 0.8570800149451913 0  0.07907173728548558 0.1337030059322487 0  0.6343750000000001 0.0469825599303355 0  0.266717541732183 0.2010050577859366 0  0.3392162713258344 0.271776581497023 0  0.8906962832549109 0.5316714372330773 0  0.5297920435043023 0.9545475353861123 0  0.1335670392656575 0.07899132682301821 0  0.04609103342647228 0.353125 0  0.1486572394274388 0.3629061538782422 0  0.1778398055013197 0.6635899773716937 0  0
[...]
<PointData  Scalars="theta"> 
<DataArray  type="Float64"  Name="theta"  format="ascii">5.3969367832089787e+00  1.0000000000000000e+01  1.0000000000000000e+01  1.0000000000000000e+01  1.0000000000000000e+01  1.0000000000000000e+01  1.0000000000000000e+01  1.0000000000000000e+01  1.0000000000000000e+01  1.0000000000000000e+01  1.0000000000000000e+01  1.0000000000000000e+01  1.0000000000000000e+01  1.0000000000000000e+01  1.0000000000000000e+01  1.0000000000000000e+01  1.0000000000000000e+01  1.0000000000000000e+01  1.0000000000000000e+01  1.0000000000000000e+01  1.0000000000000000e+01  1.0000000000000000e+01  1.0000000000000000e+01  1.0000000000000000e+01  1.0000000000000000e+01  1.0000000000000000e+01  1.0000000000000000e+01  5.3969066433211648e+00  4.9032334902403010e+00  5.1404893773462703e+00  5.1405263560828462e+00  6.1253761346435924e+00  6.1256206982931687e+00  5.6250678956755857e+00  5.0553754889672433e+00  5.4857589696222870e+00  5.4858601508539548e+00  6.7186210356016343e+00  6.0833070735200003e+00  5.3195618224035233e+00  4.9708776274566064e+00  4.9708120517788972e+00  5.3195905745586094e+00  5.2453187484717789e+00  5.2699431440782352e+00  7.2503224249940494e+00  7.2502031538048817e+00  5.5693767390608135e+00  5.5694735356115022e+00  5.9831662172112008e+00  5.0734993869409237e+00  4.9398462568758807e+00  7.5694712323153679e+00  5.5376627441335637e+00  5.2360748251949305e+00  5.2361420434955122e+00  5.8067919226878102e+00  5.5745168646082490e+00  5.2828347619258249e+00  5.0475533634564007e+00  5.3764719448818159e+00  5.4284295126724329e+00  6.0249699496347615e+00  5.7048828040472648e+00  5.4498900214717549e+00  6.5925793253244906e+00  6.7180830588124287e+00  5.2299074191809032e+00  8.2325833060352753e+00  6.3449317703188184e+00  5.0779388039289799e+00  5.2227475193190873e+00  7.5883141682750965e+00  5.8582908319918268e+00  6.2063637121596260e+00  5.3255215907730609e+00  5.3553394995666137e+00  5.3766156941499359e+00  5.0475700965370933e+00  4.9206510950787843e+00  4.9207244370841456e+00  6.4947324820807610e+00  4.9922260755774071e+00  4.9923382316877412e+00  5.7090075158408533e+00  5.3706490970874201e+00  5.1596974261366224e+00  5.4221031032953988e+00  5.3847990143411568e+00  5.5858173674729095e+00  8.2333452079821985e+00  6.5926147468559071e+00  5.4395535926372105e+00  5.7933759262106008e+00  5.4395317521248820e+00  5.7934203834012932e+00  5.1635209086929761e+00  5.4397254818835652e+00  6.8829892902077168e+00  5.9951447900178421e+00  5.6969167923496187e+00  6.2818796378828807e+00  5.7980024868012965e+00  5.1269307220358726e+00  5.7289538196443122e+00  7.0380205269807385e+00  5.1679707539580919e+00  5.3677116625808701e+00  8.4133443701793453e+00  5.0174892201345012e+00  7.6026381913654673e+00  6.0185887852557833e+00  4.9469084654818287e+00  5.0585721536969475e+00  5.1000349129804095e+00  4.9468568039784335e+00  4.9124156157643046e+00  6.3191107410903715e+00  5.0065772967148368e+00  6.5854482836036334e+00  5.3584912211570810e+00  5.2774421681308779e+00  5.4948431266417330e+00  5.4855396294253742e+00  5.3576814458528501e+00  4.9848611755139265e+00  5.8215057968640203e+00  5.9882762014299074e+00  5.9681501884563533e+00  5.6326778944577809e+00  5.5173800144411000e+00  5.3745653271897833e+00  5.2811730804946402e+00  5.4065148675978181e+00  5.6273388950344181e+00  5.5315171821012878e+00  5.4075314760574571e+00  5.3917127418439668e+00  5.4120531487398926e+00  5.2759232196069856e+00  6.3436406382875301e+00  5.3225593722016526e+00  5.5659274892420578e+00  5.5377953585566164e+00  8.3314972165690016e+00  8.3269732917498427e+00  7.3215848302003810e+00  7.0273127726798830e+00  5.1377615462882442e+00  6.3739016780858080e+00  7.0528632779401352e+00  5.4176373903017030e+00  7.6866553263166582e+00  5.1538155400168293e+00  5.0788474677967619e+00  5.4782083136691648e+00  6.5354687924954638e+00  5.7400448612584380e+00  5.2527983342494373e+00  5.2519466991575339e+00  5.2803931629275862e+00  5.1888562541121122e+00  5.1626178998304022e+00  5.8528791451672530e+00  6.1860976045457718e+00  6.2584731279600510e+00  5.1193374691592091e+00  5.1932921252048709e+00  5.0670862203848941e+00  5.4367632623629580e+00  5.3955838241154996e+00  6.0186552529940300e+00  5.0159602894483859e+00  5.6931816734274436e+00  5.2803305403197527e+00  5.2726025316270375e+00  5.2189329977736980e+00  5.1655718724105117e+00  6.5962986515547337e+00  6.8923168695964110e+00  6.7085342929866973e+00  5.3798053595606854e+00  7.0644131119957878e+00  6.5752320920060070e+00  6.3397155331897785e+00  5.9446343588370860e+00  5.3106493659782528e+00  5.8004773683979920e+00  7.7355722998146881e+00  5.8338516367065294e+00  5.0927216231827392e+00  4.9782532895398797e+00  5.6378455723115088e+00  5.8729062887740886e+00  6.1014913844889636e+00  5.3863276671847151e+00  6.2023643724063486e+00  5.8020110236091424e+00  5.9878682578202280e+00  5.3991397634379661e+00  5.7151996998850834e+00  5.5645093740309415e+00  5.3099184018438494e+00  5.0541088418192128e+00  5.1888845449840399e+00  5.3916602850070428e+00  4.9419886933027248e+00  5.0928813906089312e+00  4.9420025561710101e+00  5.0064198654141832e+00  5.3520850269356819e+00  4.9075799577162771e+00  4.9075759655307181e+00  5.3520845731619753e+00  4.9777197611161652e+00  5.2887783997949018e+00  5.6689885114176164e+00  4.9253376903325812e+00  4.9257775347651389e+00  5.1924058529782053e+00  5.0179753307786124e+00  5.4075056678837772e+00  5.5068603754952345e+00  4.9608408015041254e+00  5.8705074117390765e+00  5.0292163278827466e+00  5.0270788992031603e+00  4.9624611592506360e+00  6.1730352812049007e+00  5.6105373994351737e+00  5.0983591926296192e+00  5.2158840327248335e+00  5.6682215645838880e+00  5.5863393039015454e+00  5.7629400925930021e+00  5.4314170919238478e+00  5.4455407551635604e+00  5.5156262609893298e+00  5.3401534616040234e+00  5.4699780253039636e+00  5.4379516578805314e+00  5.3263218160685293e+00  6.2817489978044820e+00  7.7943729629219387e+00  5.4951902263427090e+00  5.6806909061067046e+00  6.8923924843835005e+00  5.5838265435540926e+00  8.9549614107141799e+00  5.9700053823684076e+00  8.9542446832998248e+00  6.4077486993339914e+00  5.5813518322828841e+00  5.4533899960010110e+00  6.1551898017405744e+00  5.4075816437289612e+00  5.9446985896740170e+00  6.3395335818660472e+00  7.6869676981991812e+00  5.4932310277485339e+00  5.4932487872395024e+00  5.6689939572610948e+00  5.5769619507371395e+00  5.2092038262975908e+00  5.2036401789896489e+00  5.3082065528205247e+00  5.2079651885938540e+00  7.3659100678452951e+00  5.0378840693118665e+00  5.3567750241078702e+00  5.5471899382192795e+00  6.0236184757055113e+00  6.9422843129249117e+00  5.6712944498813584e+00  5.8889427303936834e+00  5.3362264505158494e+00  5.1177821198616087e+00  8.9684075245473842e+00  5.8597822190932991e+00  7.1850165133959090e+00  6.5964419999881061e+00  5.1393455926080973e+00  5.1216220419664094e+00  8.9704955699268272e+00  7.0435563203401284e+00  6.8263306943022295e+00  5.7193478710557146e+00  5.3645432926942309e+00  5.1175389795343316e+00  5.3078673658765148e+00  7.0204881323866548e+00  6.1638784222058680e+00  6.4706596665778084e+00  6.1147646687265436e+00  5.2733792030098021e+00  8.0095060292043119e+00  5.2716801993394871e+00  6.0068347056224214e+00  6.3577618240844140e+00  5.5296109373473197e+00  5.3837271702465586e+00  5.4104536260141636e+00  5.3006987299162551e+00  5.4447776713895166e+00  6.7244175132693869e+00  7.3684399223042627e+00  5.2028712841250853e+00  5.2084163338510416e+00  5.1201936131718098e+00  7.3914164027644045e+00  5.4402223613983773e+00  5.8452941627432491e+00  5.1713709373442853e+00  5.9085952650226456e+00  5.4007220705336438e+00  5.7240088139524152e+00  5.2197119456864858e+00  5.3857570609496879e+00  5.2924296659649031e+00  5.6760900938937597e+00  8.0466580419547533e+00  6.3993761428145897e+00  7.8410162947245858e+00  5.6231552825845066e+00  5.5923941007446398e+00  5.5109482892299706e+00  6.7676214738589984e+00  5.8579467463096071e+00  5.4922993699231215e+00  5.1004984667890145e+00  5.4508138666529593e+00  5.3362951240044687e+00  5.6054829550407606e+00  6.7276465488384973e+00  6.1565377141711499e+00  5.4476459989255872e+00  5.3409850449345759e+00  5.0282765920699966e+00  5.0508131189939256e+00  5.4017814666472992e+00  7.4398657648655018e+00  7.9156990105048841e+00  5.0167796729560816e+00  5.0754180627011030e+00  5.5066197239696306e+00  5.1022937338492182e+00  6.1721770410492622e+00  5.9576815945648969e+00  5.4419218109053400e+00  5.3402630373146955e+00  5.4377715766905474e+00  4.9673156876814542e+00  5.2536226451514452e+00  5.3129812547147495e+00  5.3102456102334639e+00  5.3581628339979375e+00  5.8519799471649767e+00  5.1776547121400869e+00  5.5349071002717238e+00  5.3890495115621517e+00  7.2959267198279276e+00  5.0922189086083360e+00  4.9893749534613967e+00  5.3203698336373497e+00  4.9141599260533253e+00  4.9238244726505656e+00  4.9418254302096667e+00  4.9313400652013923e+00  4.9568289332122131e+00  5.0554936170233331e+00  4.9142321563547062e+00  5.1183213134330954e+00  5.0714882091297691e+00  4.9674292203286514e+00  4.9568658783802926e+00  5.0238201588535585e+00  4.9055222646090932e+00  5.1582145875917602e+00  5.4493261646685571e+00  5.4083346841788673e+00  5.3889233682414304e+00  6.4548169085596490e+00  6.2234711144996435e+00  6.4840370960281986e+00  6.5824953579848895e+00  6.8184000026306348e+00  6.4228167833355592e+00  5.7252106229380990e+00  5.4182920562041623e+00  4.9302619916480941e+00  5.0229347014848349e+00  5.8978280044298241e+00  4.9406077377392990e+00  5.4190725493961027e+00  5.3998719931772046e+00  4.9878715129342757e+00  5.6785713439624530e+00  5.2498709817032649e+00  5.7672388521767193e+00  5.9386329761911361e+00  5.8346965733321259e+00  5.0021289734261574e+00  5.2196692137742042e+00  5.2635432286484587e+00  5.2719489892135600e+00  5.5240832694737279e+00  5.5488662172032486e+00  5.5266466428721053e+00  4.9872934882117166e+00  4.9599539819339666e+00  4.9854530011749763e+00  5.0871620845510979e+00  6.0406233915751546e+00  6.0864131592864084e+00  6.0273351117399754e+00  6.0843226268545507e+00  5.8763652591339097e+00  5.7158554151285754e+00  5.7407146766324262e+00  5.5991741575173348e+00  5.6322885803333316e+00  5.5275312842980275e+00  5.4400777255155006e+00  6.7719105669504920e+00  5.5529631356951494e+00  5.3944170397584568e+00  5.8863700588405674e+00  5.4876068369441509e+00  5.4154463661228522e+00  5.3343132747831126e+00  5.7865113193347701e+00  5.6705109345437670e+00  5.6161194184628442e+00  5.5085439494597166e+00  5.4545690361598025e+00  5.6372089083249399e+00  7.2687749575439522e+00  6.8083330327783615e+00  4.9957169868099518e+00  5.2143562486088229e+00  5.3450797748363961e+00  5.3727208259254180e+00  5.1918455323155799e+00  5.5018705913943959e+00  5.2764665886786837e+00  5.3579310864975707e+00  8.8151446914275642e+00  8.8181163785847883e+00  7.5964223293805624e+00  6.1255230442558597e+00  5.0446016367762692e+00  6.5401231153722295e+00  5.5308904251859934e+00  7.0534489463267152e+00  6.3106922924736617e+00  5.2532997103351970e+00  6.0062756178891181e+00  5.3364544644949827e+00  5.4545443762297081e+00  5.2869082599547790e+00  6.9567523890416831e+00  5.1342435643917996e+00  5.7268932286223269e+00  5.6599023692833859e+00  8.1362659504418655e+00  7.9101521432430619e+00  8.3255564394806534e+00  6.5876745222367035e+00  6.3453157727555567e+00  7.4245813955052835e+00  7.0868909288658504e+00  5.3739510461499824e+00  5.1613402535241928e+00  5.1500913965009563e+00  5.1854253504128245e+00  8.4445695255844271e+00  5.7749265801629823e+00  5.4591507432924269e+00  5.3934918887467864e+00  6.2441905657658996e+00  6.4040506636726908e+00  5.1891657786304890e+00  5.2495244605684430e+00  5.0830088458270675e+00  5.3694135972408663e+00  6.1668519784602998e+00  5.0427694512934735e+00  5.0087256930832975e+00  6.5217814436533033e+00  5.0790729268363037e+00  5.3654508519012252e+00  5.3650642836098275e+00  6.4870181915669178e+00  9.2149252432788877e+00  5.8514794547486817e+00  5.3408777050218097e+00  5.5936434352781497e+00  5.4064797399979971e+00  5.3468847942097026e+00  5.2725447353746357e+00  5.1311177406792563e+00  5.1134651955763415e+00  5.1599313485290246e+00  5.2254486247525733e+00  5.0567754750619791e+00  8.4621346437198870e+00  5.4177230475732747e+00  5.5264040860613566e+00  6.6296693151933876e+00  6.4489023308871207e+00  5.1478839031924970e+00  7.2668645960769540e+00  5.2499294327307595e+00  5.2099213283224906e+00  5.2720631124847053e+00  5.4342042022233192e+00  5.5687900288717573e+00  5.2564939912405260e+00  5.6436812966143064e+00  6.6290314424028862e+00  6.3139826377611694e+00  5.9813811204612826e+00  6.1185617682332962e+00  5.7216657327199156e+00  5.4279625609949402e+00  5.3597277867850268e+00  6.8380198291545478e+00  6.8743945143313310e+00  5.7555557482848396e+00  5.7700716988628651e+00  5.0596792090769185e+00  5.0960268863474347e+00  5.1395641938316352e+00  6.2663011913454341e+00  5.3945588833490836e+00  5.4818265831900064e+00  5.3928042346509093e+00  5.0900093176940091e+00  5.4667151889142991e+00  7.1243824024216122e+00  7.3102825633749458e+00  5.7375362616988630e+00  5.4395703739428480e+00  5.3592526819931710e+00  5.3715790325410095e+00  5.1522312817565297e+00  5.6738890600425806e+00  5.1821250460233168e+00  6.2260029189932196e+00  5.3954770501521292e+00  6.0924094395393915e+00  6.1416667259458562e+00  6.0337273148000294e+00  5.9026059098353532e+00  5.4798878264995929e+00  5.9323458082823306e+00  5.3791167911930549e+00  5.3682327153588645e+00  5.7280027721429967e+00  5.2001447228547582e+00  5.0412706056797676e+00  5.0166050364248553e+00  5.3185405992556589e+00  5.1304807598039854e+00  5.5914976101944962e+00  4.9323059698460501e+00  5.2301630230884770e+00  5.1460461632844963e+00  5.1569495875314662e+00  5.5915862790306061e+00  5.6664617663358561e+00  5.9336961295679149e+00  5.8462517741497129e+00  5.7128081538316087e+00  5.9078568531719791e+00  5.3348915481277990e+00  6.8862940450444228e+00  5.1234779333030689e+00  5.2285418524156970e+00  6.9088479213854308e+00  6.7339114631970398e+00  6.7949826179938659e+00  6.0673457369955930e+00  5.2450761735949021e+00  6.4297388801951465e+00  8.5653556755395623e+00  5.5033977761559836e+00  5.6347459697219220e+00  6.5547263855338702e+00  7.1402104348052164e+00  5.8054671554967667e+00  5.6488462957059555e+00  5.7698342469813984e+00  6.0747235541262627e+00  5.3179622947401413e+00  7.8363282235213934e+00  9.3175176442295999e+00  7.1842852849300201e+00  5.4627259307098113e+00  5.3305657074646282e+00  5.3153294251592120e+00  5.2904731912285978e+00  5.3205474932952566e+00  5.3006398731392101e+00  5.3654467834230690e+00  9.3181037946308649e+00  5.3959229369213269e+00  5.1932735409943893e+00  7.6266956421186984e+00  6.2834324042349730e+00  5.5111675415190664e+00  5.3136413158352349e+00  5.3335624676445930e+00  5.2890893762098692e+00  5.8915727712588710e+00  5.7650617542588725e+00  5.2502922047574430e+00  5.5284403684279662e+00  5.5039132015314465e+00  8.0213330027228995e+00  5.7887453147998205e+00  5.5868997664206423e+00  5.7034280695989912e+00  5.5211143752158458e+00  5.3283413316949453e+00  5.1681035758678515e+00  5.0340568910841217e+00  5.4242312373973247e+00  4.9962952779635996e+00  5.9272723079286616e+00  5.3484521225250452e+00  6.6208662734102237e+00  5.8053989579214820e+00  5.3854700391050301e+00  6.4049745691631355e+00  5.2587327040388585e+00  5.3346469137999151e+00  5.8135013854670383e+00  5.2587217920546472e+00  5.4184806004548927e+00  5.0945352986680357e+00  4.9615911738053589e+00  5.3995187185672782e+00  6.1963054633601029e+00  6.6527377324549226e+00  4.9842021220429782e+00  6.4596857088288928e+00  5.9362579833834390e+00  5.1081058539566815e+00  6.0617703817973743e+00  5.2351621285833465e+00  5.2210228798757470e+00  5.1774467807911879e+00  5.3941274920230615e+00  6.3356705019034649e+00  5.0342791615716527e+00  5.0721637522134353e+00  5.6413243964833732e+00  6.1381504481352236e+00  6.0922365597863521e+00  5.8029229618518539e+00  5.4270748919798679e+00  5.3757301660254022e+00  6.3117253022665825e+00  6.2696011184070644e+00  5.0776800283978289e+00  5.8984768601992723e+00  5.0534385938297630e+00  6.0129006068248776e+00  5.6688183999377406e+00  5.7719784032446171e+00  5.2881673736119241e+00  6.0194354272131658e+00  7.2674711630819440e+00  6.3546151833861551e+00  5.0087834561689739e+00  4.9429541388338247e+00  5.0766524894863032e+00  5.0492205363333875e+00  4.9432242908805897e+00  4.9725879603828824e+00  5.0945756262422917e+00  5.3006428895988575e+00  5.0263904031817610e+00  4.9555684683234302e+00  5.0697115513381341e+00  5.1164474136863412e+00  4.9131250406964151e+00  4.9555065600680361e+00  4.9302198635135008e+00  4.9130319748357705e+00  4.9879427778774943e+00  5.3853134309336417e+00  5.1646949451649737e+00  5.0265477265262914e+00  5.3853594713757218e+00  5.3368863577034107e+00  5.2127687325270387e+00  5.1164259018096612e+00  4.9043749821533007e+00  4.9043719004339730e+00  5.3954572727351637e+00  5.0697360074496487e+00  5.1646484250224782e+00  5.2127420358696890e+00  5.3367812137080408e+00  4.9835426603089878e+00  4.9774533107614864e+00  4.9960234075673089e+00  5.3914684730303160e+00  7.0092052227567478e+00  4.9318321720582476e+00  4.9181679034095929e+00  4.9354535503812151e+00  4.9177617413949619e+00  4.9222611813135932e+00  4.9216721500129745e+00  5.9250966714691495e+00  5.0044087038679494e+00  5.0382087345191398e+00  4.9996055504914354e+00  5.6627920226643900e+00  5.7865020520235291e+00  5.9405254302350894e+00  6.5871175557066142e+00  4.9086996417327908e+00  4.9087936316875256e+00  5.5743134943846231e+00  5.6126950470191002e+00  5.6162067300713785e+00  5.6583513511725991e+00  5.1549968578367329e+00  5.6329386523229275e+00  5.5308527571851132e+00  5.5548910673174507e+00  5.7693667788932936e+00  5.1921679707028536e+00  5.8494769990482149e+00  6.2443756265941532e+00  5.4621950214137529e+00  6.1918982714705795e+00  4.9621815834548189e+00  5.0221094882494457e+00  5.5326091678756768e+00  4.9519974970701579e+00  4.9492831006845259e+00  4.9544017323844018e+00  5.6787244760594682e+00  5.6344238791288737e+00  6.4608682514252740e+00  5.3078128740339601e+00  5.5362455264517454e+00  5.1248565764848433e+00  5.1233375918666182e+00  8.7722882065171710e+00  4.9743016781332399e+00  5.0078367182420083e+00  4.9718995797958172e+00  5.5751240763221075e+00  6.2177071343526649e+00  5.2915328573645910e+00  5.6037314183357338e+00  4.9752081315145302e+00  4.9502045412071967e+00  4.9727355109027700e+00  5.4242233207592392e+00  5.4909812500323607e+00  6.0682937942092359e+00  5.2426391155030903e+00  5.7958124457053284e+00  5.6948120148676038e+00  5.6450794335332226e+00  5.5333325575035097e+00  7.6618961795609257e+00  7.5388818213888769e+00  8.0748684039016823e+00  5.4581211675866754e+00  5.5773041598420807e+00  5.4765326481481171e+00  5.4587376126076004e+00  5.4725678050253270e+00  5.4019094898942193e+00  5.4102875039060736e+00  5.4056740732964776e+00  5.3316677402423416e+00  5.4258263429267526e+00  5.3781234424347097e+00  5.4423223531999447e+00  5.3734445875037453e+00  5.5173114078235344e+00  5.3042436960358685e+00  5.5597187085283064e+00  5.4020269921783912e+00  5.4823570936304735e+00  6.7363196020930127e+00  4.9317953941121875e+00  5.5018783427325131e+00  6.6814303529479799e+00  5.6282676157370064e+00  5.7344748913565518e+00  5.2514093168292293e+00  6.2232252812430167e+00  5.4636121220861700e+00  5.9613251125395772e+00  5.5422827149632719e+00  5.5835406615947463e+00  5.0473748311697273e+00  5.2049049543783301e+00  5.4805430671607676e+00  5.3607944902427027e+00  5.4803267200849337e+00  6.0958880883564133e+00  5.7262904586445158e+00  8.5657571488573243e+00  5.5629770837391206e+00  5.1715617094555189e+00  5.1635698297872956e+00  5.3627127309194735e+00  5.2952454638988380e+00  9.4221757179383445e+00  9.4207281260242066e+00  5.6466153210283085e+00  5.9980127644640238e+00  5.8654800671508447e+00  8.0257070895016351e+00  5.4176696135151321e+00  5.5468535277804154e+00  6.5677615245298497e+00  5.9635687914834010e+00  5.448978011151271