<?xml version="1.0"?>
<VTKFile type="UnstructuredGrid"  version="0.1"  >
<UnstructuredGrid>
<Piece  NumberOfPoints="4052" NumberOfCells="7821">
<Points>
<DataArray  type="Float64"  NumberOfComponents="3"  format="ascii">0 1 0  -0 0.1 0  0.006279051952931353 0.09980267284282716 0  0.01253332335643045 0.09921147013144778 0  0.01873813145857247 0.09822872507286887 0  0.02486898871648548 0.09685831611286311 0  0.03090169943749475 0.09510565162951536 0  0.03681245526846781 0.09297764858882514 0  0.04257792915650727 0.09048270524660196 0  0.04817536741017152 0.08763066800438638 0  0.05358267949789966 0.08443279255020152 0  0.05877852522924733 0.08090169943749474 0  0.06374239897486898 0.07705132427757894 0  0.06845471059286887 0.07289686274214116 0  0.07289686274214116 0.06845471059286887 0  0.07705132427757894 0.06374239897486897 0  0.08090169943749476 0.05877852522924731 0  0.08443279255020152 0.05358267949789967 0  0.08763066800438636 0.04817536741017153 0  0.09048270524660196 0.04257792915650727 0  0.09297764858882515 0.03681245526846779 0  0.09510565162951536 0.03090169943749474 0  0.09685831611286311 0.02486898871648548 0  0.09822872507286888 0.01873813145857246 0  0.09921147013144779 0.01253332335643043 0  0.09980267284282716 0.006279051952931338 0  0.1 0 0  1 0 0  1 1 0  0.5 1 0  1 0.5 0  0.55 0 0  0 0.55 0  0.4986842105263158 0.4986842105263158 0  0.7486876550013779 0.7486876550013779 0  0.2725563909774436 0.749937343358396 0  0.749937343358396 0.2725563909774436 0  0.2304402234055765 0.3406545866984559 0  0.4993454029811371 0.2467698852394143 0  0.25 1 0  1 0.75 0  0.75 1 0  1 0.25 0  0.5106549095251218 0.7618422692857798 0  0.736782729073994 0.5105891364536997 0  0.325 0 0  0 0.325 0  0.775 0 0  0 0.775 0  0.2099239891487248 0.5495740610803221 0  0.8749931469765426 0.625 0  0.8736944724244707 0.8736944724244707 0  0.2339826755572725 0.1581865432985211 0  0.397643555267085 0.6351317060060406 0  0.375 1 0  1 0.375 0  0.6363066971941131 0.1463001174615738 0  0.6237172615162874 0.3849608391673591 0  0.6116955647843525 0.6253947738060549 0  0.625 1 0  0.125 1 0  0.8645399347151193 0.1456640587563927 0  0.3424957080372453 0.4571257197342906 0  0.1291361365038822 0.6847987802190676 0  0.1439589101931099 0.8426210352795072 0  0 0.4375 0  0.3871701679775181 0.1410494837230635 0  0.8656640133595905 0.4375 0  0 0.2125 0  0.3726617677623451 0.3159641267564832 0  0.6348375201512751 0.8487480367273977 0  0.4375 0.8778866104573971 0  0.1314110835104651 0.2474636169944869 0  0.4983536097439834 0.3727253124576426 0  0.5123032836840816 0.120845865074902 0  0.8789239749768363 0.3051271273244827 0  0.265228083560257 0.8753249632616968 0  1 0.125 0  1 0.625 0  1 0.875 0  0.875 1 0  0.1352658466978828 0.436775408243069 0  0.8756459285644895 0.7493540358351459 0  0.753461909618609 0.8689202178072396 0  0.6306383897641965 0.2656635216803609 0  0.3916904877605716 0.7541930561363105 0  0.7313414272876746 0.6302080839650394 0  0.6176486322908661 0.5063334236757852 0  0.742735274050127 0.3915382369310418 0  0.7503383987093257 0.1155117279737728 0  0.2125 0 0  0.4375 0 0  0 0.8875 0  0 0.6625000000000001 0  0.8875 0 0  0.6625000000000001 0 0  0.6202737097505222 0.73738149700328 0  0.5036568834506555 0.608001047725674 0  0.2880436342643727 0.2505044964060542 0  0.1050205503445402 0.5786462408529814 0  0.2299517597042433 0.6532844001834361 0  0.2391277500922793 0.4444356087006771 0  0.3174168097892749 0.5624410281868076 0  0.5418138208476888 0.9015478253383676 0  0.4072126747904323 0.5281805644664292 0  0.0990923602281141 0.3428168311720388 0  0.8346709533343765 0.5330241587477063 0  0.1875 0.9290985981549904 0  0.1390868549076889 0.1390868549076889 0  0.6824238813237909 0.9277889835459552 0  0.26875 0.07291292403459587 0  0.4112691445187892 0.3980184974561009 0  0.8125 0.9374865057192414 0  0.8124896676056745 0.6875068357810726 0  0.9374965734882713 0.5625 0  0.9374966267953732 0.8125 0  0.936207828651707 0.936207828651707 0  0.06793618395711321 0.49375 0  1 0.6875 0  0.3731250265387274 0.2279435265287277 0  0.3298326696827137 0.8161928304772937 0  0.3509547990086576 0.9041275457687101 0  0.8232536980856018 0.07069057441245478 0  0.7906603197353244 0.1941375443350976 0  0.913974474391699 0.221585192880964 0  0.8159886583808208 0.8106032789522666 0  0.5572224219442964 0.3102072365488286 0  0.585820009375925 0.07747620896608076 0  0.5627899715022697 0.189669773570395 0  0.6937698504991281 0.2088452070189226 0  0.3342818391511077 0.6916431219530396 0  0.4550522038765488 0.6976816401893116 0  0.551345454408368 0.6863394748601788 0  0.6793547363155398 0.4485807208921703 0  0.5555003164043113 0.4355552039952097 0  0.6868594760732185 0.3284471322003629 0  0.9238867218593627 0.08037695032657358 0  0.0625 1 0  0.08687660705400899 0.9128463294144394 0  0.6738910946757016 0.5688250485478247 0  0.2986170991438435 0.3872016171987264 0  0.8222288363393183 0.3662984721426986 0  0.0911620551811078 0.7679725418319597 0  0.1818770255657337 0.759133996361141 0  0.1888224840023903 0.07642045418256835 0  0.07657739947558981 0.1891198289420665 0  0.2100141784021913 0.2342102803927 0  0.3132276604753005 0.1737689512194791 0  0.6885351166248667 0.6969848128775642 0  0.4426135895862874 0.1945932122077106 0  0.3465074036337838 0.07474628157076517 0  0.566250018341088 0.5634429947310939 0  0 0.26875 0  0.5766461644323301 0.7997223822208637 0  0.6806875496153864 0.7861165091157878 0  0.06111524268266403 0.8395840169914568 0  0.4416711194686974 0.08099254152260515 0  0.6791673432680594 0.07847894936093386 0  0.7979830066874174 0.4683306911397416 0  0.9187425073091731 0.3759663712124485 0  1 0.3125 0  1 0.4375 0  0.9243918299803262 0.4868911114294811 0  0.1704624275002771 0.6109835615475714 0  0.1413457220102358 0.5122309686436584 0  0.4310292552637188 0.2722597998627808 0  0.8027187753840952 0.6152329887630851 0  0.5015701589523575 0.8371959725193641 0  0.6094943240919393 0.9287316137105981 0  0.2328953503480202 0.8105273072236386 0  0.8447894908372526 0.2416820214436413 0  0.284885794210777 0.4990506740817662 0  0.9221568389137804 0.6869311511259557 0  0.05945811502081506 0.7032420230473162 0  0.3125 1 0  0.4377350930858506 0.8074700641506847 0  0.4092233201462995 0.940465108118945 0  0.4797705155012656 0.9333027917566784 0  0.295413156040836 0.3186919539219819 0  0 0.38125 0  0.06770196067691947 0.4088445217899102 0  0.9350848921241662 0.1537848366002334 0  0.1642727546105593 0.3117552611939169 0  0.1904678267807919 0.396254810852778 0  0.49375 0 0  0 0.6062500000000001 0  0.28125 0.9405494296215232 0  0.4694524255120915 0.4357810514778665 0  0.06516712542008556 0.2547829054197185 0  0.08003486267293934 0.6401379969392129 0  0.5625 1 0  0.7473704202216473 0.9338653390050878 0  0.3327441148760871 0.6261420831328772 0  0.4073662006378155 0.4630411061025426 0  0.4340880971458162 0.337172201224077 0  0.8121836908052976 0.3001294674116101 0  0.5250942049961811 0.05853337282236735 0  0.2591395663813264 0.5938588909854232 0  0.4940630815938962 0.309709909772158 0  0.2023096098710221 0.8674418623806036 0  0.5612212738868572 0.3729479885571361 0  0.4413271809478079 0.5851365077293895 0  0.9410895946141453 0.2820852842309691 0  0.9374965734882713 0.6250034266056566 0  0.4375 1 0  1 0.0625 0  1 0.8125 0  1 0.5625 0  0.8125 1 0  0.6875 1 0  0.1875 1 0  1 0.9375 0  0.9375 1 0  1 0.1875 0  0.9378360775319806 0.7471525961568534 0  0.3862636652797206 0.8425068869411676 0  0.71875 0 0  0.9381327112541133 0.8743672545066261 0  0.8743406271253783 0.9355616739507995 0  0.7562647611381207 0.5714085797915306 0  0.8140733271370152 0.749059771216365 0  0 0.94375 0  0.6156698780268253 0.4453964779777345 0  0.8767201683398869 0.8129913874269008 0  0.5711899587111018 0.2504550759876302 0  0.6926246228674828 0.8678025729072103 0  0.7377670157969483 0.8093323678394977 0  0.8136014180737937 0.8707224060535723 0  0.5022518359642655 0.1811487802623847 0  0.746875 0.05438382329437283 0  0.7483598271241242 0.6882260619625375 0  0.6714841951720003 0.6286540555237484 0  0.616222425677022 0.3246765942283796 0  0.6903059582063926 0.268796833558722 0  0.6340850058828411 0.2060109040731737 0  0.3321537666532368 0.7512162200809438 0  0.395515482769214 0.6947048041339449 0  0.5580463923523269 0.5043755695361543 0  0.6772268506091894 0.5081485899925851 0  0.6831793955853223 0.3890976904699271 0  0.7463504007190528 0.3320481669555255 0  0.7409102364363476 0.4511212484360851 0  0.1849740565770197 0.4707428654843637 0  0.1796493097983441 0.1828467307328437 0  0.8058228773735477 0.1367095668913244 0  0.6946157617552289 0.135695629905689 0  0.38125 0 0  0.2231074197956162 0.7140179215894348 0  0 0.15625 0  0.5799287280132485 0.134727379131579 0  0.15625 0 0  0.4562477168518259 0.1376758539425969 0  0.2759556394201925 0.6892212097894544 0  0.4564109524831979 0.6404064807728521 0  0.3541282266248315 0.4010967567816464 0  0.94375 0 0  0.6062500000000001 0 0  0 0.49375 0  0.26875 0 0  0 0.83125 0  0.83125 0 0  0 0.71875 0  0.7389264652095522 0.1710162612193479 0  0.5643666174852343 0.7446926722793197 0  0.632473671127214 0.6801250810106914 0  0.4549677650212633 0.7539282618385155 0  0.9208736401886721 0.4314640622603904 0  0.2811345653436373 0.1276866833442084 0  0.8672842820464708 0.6797950284714432 0  0.5575522720318788 0.6174678216991296 0  0.4881311903430982 0.5539357715677495 0  0.04874556469237357 0.578125 0  0.2404256593806047 0.2835564665148999 0  0.3717848541590204 0.5830538695175584 0  0.3381820644935781 0.5117421978408342 0  0.6197865036680674 0.5718150784460083 0  0.5780704112783077 0.8570800149451913 0  0.07907173728548558 0.1337030059322487 0  0.6343750000000001 0.0469825599303355 0  0.266717541732183 0.2010050577859366 0  0.3392162713258344 0.271776581497023 0  0.8906962832549109 0.5316714372330773 0  0.5297920435043023 0.9545475353861123 0  0.1335670392656575 0.07899132682301821 0  0.04609103342647228 0.353125 0  0.1486572394274388 0.3629061538782422 0  0.1778398055013197 0.6635899773716937 0  0
[...]
<PointData  Vectors="u"> 
<DataArray  type="Float64"  Name="u"  NumberOfComponents="3" format="ascii">0.0000000000000000e+00 1.8102989194391175e-04 0.0000000000000000e+00  0.0000000000000000e+00 1.7834378181160516e-05 0.0000000000000000e+00  1.1151828081562048e-06 1.7769122903602780e-05 0.0000000000000000e+00  2.2378043105305261e-06 1.7667941532333275e-05 0.0000000000000000e+00  3.3331857813074070e-06 1.7544307041569450e-05 0.0000000000000000e+00  4.4354115025177687e-06 1.7238333880342078e-05 0.0000000000000000e+00  5.5225101124067201e-06 1.6965742865592511e-05 0.0000000000000000e+00  6.5577178486502438e-06 1.6561213443821712e-05 0.0000000000000000e+00  7.6255132434054187e-06 1.6166704192921959e-05 0.0000000000000000e+00  8.5802498675344585e-06 1.5629904054947402e-05 0.0000000000000000e+00  9.5601815956285813e-06 1.5090896816770641e-05 0.0000000000000000e+00  1.0428189223033537e-05 1.4423510713845150e-05 0.0000000000000000e+00  1.1300886267049550e-05 1.3720289930096945e-05 0.0000000000000000e+00  1.2139415232032637e-05 1.3002160730563189e-05 0.0000000000000000e+00  1.2964335181064788e-05 1.2186812935943852e-05 0.0000000000000000e+00  1.3691561449571430e-05 1.1314298844300387e-05 0.0000000000000000e+00  1.4419136073183656e-05 1.0475814358368510e-05 0.0000000000000000e+00  1.5118434111218276e-05 9.5365090384709699e-06 0.0000000000000000e+00  1.5616590205475090e-05 8.5642238308966677e-06 0.0000000000000000e+00  1.6115854550993245e-05 7.5624594346697253e-06 0.0000000000000000e+00  1.6590634926843471e-05 6.5747151877575406e-06 0.0000000000000000e+00  1.6951228612577231e-05 5.4919131634566807e-06 0.0000000000000000e+00  1.7351644342723905e-05 4.4651268810459145e-06 0.0000000000000000e+00  1.7485761253912926e-05 3.3663657630243129e-06 0.0000000000000000e+00  1.7643790082372800e-05 2.2402196693758826e-06 0.0000000000000000e+00  1.7816152682565816e-05 1.1508157732712481e-06 0.0000000000000000e+00  1.7772064638262775e-05 0.0000000000000000e+00 0.0000000000000000e+00  1.8103141218186398e-04 0.0000000000000000e+00 0.0000000000000000e+00  1.6819731998723045e-04 1.6819752897649244e-04 0.0000000000000000e+00  9.2421505820403048e-05 1.7323705295213787e-04 0.0000000000000000e+00  1.7323953338216268e-04 9.2415980246934556e-05 0.0000000000000000e+00  1.1151117618387780e-04 0.0000000000000000e+00 0.0000000000000000e+00  0.0000000000000000e+00 1.1151158571243723e-04 0.0000000000000000e+00  9.4909861765657622e-05 9.4911216563301647e-05 0.0000000000000000e+00  1.3121446271783550e-04 1.3121327238152487e-04 0.0000000000000000e+00  5.1215498377624343e-05 1.4041671235111224e-04 0.0000000000000000e+00  1.4041576431637055e-04 5.1218469568756481e-05 0.0000000000000000e+00  4.8831318035166731e-05 7.2425239773958296e-05 0.0000000000000000e+00  1.0046746611619108e-04 4.9304088378652664e-05 0.0000000000000000e+00  4.8240665828523920e-05 1.7860711797565125e-04 0.0000000000000000e+00  1.6899248734624701e-04 1.3149813782196347e-04 0.0000000000000000e+00  1.3150036416984852e-04 1.6899203476499096e-04 0.0000000000000000e+00  1.7860559107570306e-04 4.8236839907456184e-05 0.0000000000000000e+00  9.2878489685868773e-05 1.3710770298017242e-04 0.0000000000000000e+00  1.3323624406172280e-04 9.3071530856340064e-05 0.0000000000000000e+00  7.1790814711920718e-05 0.0000000000000000e+00 0.0000000000000000e+00  0.0000000000000000e+00 7.1794392369567322e-05 0.0000000000000000e+00  1.4714229361928208e-04 0.0000000000000000e+00 0.0000000000000000e+00  0.0000000000000000e+00 1.4714206304516822e-04 0.0000000000000000e+00  4.1495306602612929e-05 1.0956053577798283e-04 0.0000000000000000e+00  1.5205008521110939e-04 1.1131840151783759e-04 0.0000000000000000e+00  1.4952005647004318e-04 1.4951974416015014e-04 0.0000000000000000e+00  5.2409200171988467e-05 3.5367933362259723e-05 0.0000000000000000e+00  7.4874005779975363e-05 1.1970079135729082e-04 0.0000000000000000e+00  7.0993272154702924e-05 1.7604700127932580e-04 0.0000000000000000e+00  1.7604493713020198e-04 7.0994337626354546e-05 0.0000000000000000e+00  1.2456934101170620e-04 2.8393584606049141e-05 0.0000000000000000e+00  1.1814602246626472e-04 7.2798131738010234e-05 0.0000000000000000e+00  1.1121003882313338e-04 1.1365766792545949e-04 0.0000000000000000e+00  1.1250752378823764e-04 1.7073001112382467e-04 0.0000000000000000e+00  2.4413047506753253e-05 1.8039309404837590e-04 0.0000000000000000e+00  1.5991797047304536e-04 2.7559219640688075e-05 0.0000000000000000e+00  6.8114068709274780e-05 9.1202411014819142e-05 0.0000000000000000e+00  2.4812537129971691e-05 1.3244228582601913e-04 0.0000000000000000e+00  2.7212666663639494e-05 1.5661755212431551e-04 0.0000000000000000e+00  0.0000000000000000e+00 9.2428537461692641e-05 0.0000000000000000e+00  8.2478938370543234e-05 2.9840525350975008e-05 0.0000000000000000e+00  1.5453212155695962e-04 8.0242856974951812e-05 0.0000000000000000e+00  0.0000000000000000e+00 4.8379512466638731e-05 0.0000000000000000e+00  7.6667187961022157e-05 6.4889061133824533e-05 0.0000000000000000e+00  1.1286151365961396e-04 1.4793729393119238e-04 0.0000000000000000e+00  8.0289026864001166e-05 1.5637296131834603e-04 0.0000000000000000e+00  2.9393514444924632e-05 5.5499185739786614e-05 0.0000000000000000e+00  9.7644066324475577e-05 7.2815686020736339e-05 0.0000000000000000e+00  1.0458168107284366e-04 2.4417101618895258e-05 0.0000000000000000e+00  1.5944600951731401e-04 5.6986881659315758e-05 0.0000000000000000e+00  4.9737703005558249e-05 1.5969064022364462e-04 0.0000000000000000e+00  1.8038776381929810e-04 2.4416243370261042e-05 0.0000000000000000e+00  1.7072705198093116e-04 1.1250850806530040e-04 0.0000000000000000e+00  1.6825374799695004e-04 1.4986819069692293e-04 0.0000000000000000e+00  1.4986865772005748e-04 1.6825674619251257e-04 0.0000000000000000e+00  2.8077248229429293e-05 9.1436008275563879e-05 0.0000000000000000e+00  1.5046264847035719e-04 1.3075542795053959e-04 0.0000000000000000e+00  1.3138151717135947e-04 1.4941955124524216e-04 0.0000000000000000e+00  1.2176910367402734e-04 5.1019496125468386e-05 0.0000000000000000e+00  7.2523502454289909e-05 1.3856909924001208e-04 0.0000000000000000e+00  1.3008506278518832e-04 1.1275606081950015e-04 0.0000000000000000e+00  1.1447442616064872e-04 9.3922682413398006e-05 0.0000000000000000e+00  1.3679670739293379e-04 7.2581073113136193e-05 0.0000000000000000e+00  1.4278689685090929e-04 2.1972600958546861e-05 0.0000000000000000e+00  4.8399275315974000e-05 0.0000000000000000e+00 0.0000000000000000e+00  9.2427198808506443e-05 0.0000000000000000e+00 0.0000000000000000e+00  0.0000000000000000e+00 1.6425715621192752e-04 0.0000000000000000e+00  0.0000000000000000e+00 1.2963264604616678e-04 0.0000000000000000e+00  1.6425516571822517e-04 0.0000000000000000e+00 0.0000000000000000e+00  1.2963099729917474e-04 0.0000000000000000e+00 0.0000000000000000e+00  1.1109667195385495e-04 1.3118930730855242e-04 0.0000000000000000e+00  9.3632305593098367e-05 1.1296883217466362e-04 0.0000000000000000e+00  6.1937304228269028e-05 5.3803822732908195e-05 0.0000000000000000e+00  2.0776512301103692e-05 1.1571465722159686e-04 0.0000000000000000e+00  4.4113249838102500e-05 1.2604022875571701e-04 0.0000000000000000e+00  4.8730458022819490e-05 9.1128463592794577e-05 0.0000000000000000e+00  6.1556180078814861e-05 1.0961983774563950e-04 0.0000000000000000e+00  9.7965108906622478e-05 1.5762484928150052e-04 0.0000000000000000e+00  7.8408402740193312e-05 1.0192040996407648e-04 0.0000000000000000e+00  2.1466768382385382e-05 7.4725841790046957e-05 0.0000000000000000e+00  1.4774698465567829e-04 9.6321350347601843e-05 0.0000000000000000e+00  3.5680421495065254e-05 1.6907704340887961e-04 0.0000000000000000e+00  3.1595011103420956e-05 3.1596247675580586e-05 0.0000000000000000e+00  1.2060341843783420e-04 1.5903829446614316e-04 0.0000000000000000e+00  6.0367521622785242e-05 1.6309836999606437e-05 0.0000000000000000e+00  8.1874365997375618e-05 7.9207161917932610e-05 0.0000000000000000e+00  1.4043505774781297e-04 1.5920924297495751e-04 0.0000000000000000e+00  1.4166284415867290e-04 1.2127178699157331e-04 0.0000000000000000e+00  1.6257419292283430e-04 1.0166332974347087e-04 0.0000000000000000e+00  1.5920971318135368e-04 1.4043592370433707e-04 0.0000000000000000e+00  1.5877646013609642e-04 1.5877672902274241e-04 0.0000000000000000e+00  1.3869509929544640e-05 1.0190298070901629e-04 0.0000000000000000e+00  1.6974686750915335e-04 1.2211585065694314e-04 0.0000000000000000e+00  7.8518563954434851e-05 4.7755828558667537e-05 0.0000000000000000e+00  6.1316941759555628e-05 1.4942799113962032e-04 0.0000000000000000e+00  6.5344903828137119e-05 1.6226139534074169e-04 0.0000000000000000e+00  1.5431548622248293e-04 1.3401919805348233e-05 0.0000000000000000e+00  1.4802654571813458e-04 3.6611357460444009e-05 0.0000000000000000e+00  1.6628083463103081e-04 4.1925381377939214e-05 0.0000000000000000e+00  1.4105194982462287e-04 1.4020892349522453e-04 0.0000000000000000e+00  1.0890678953395501e-04 6.0310135261194942e-05 0.0000000000000000e+00  1.1709875027974504e-04 1.5315741297599820e-05 0.0000000000000000e+00  1.1206811568264487e-04 3.7429037375420376e-05 0.0000000000000000e+00  1.3278361425580378e-04 3.9818817326139302e-05 0.0000000000000000e+00  6.2871698401259285e-05 1.3007297117848917e-04 0.0000000000000000e+00  8.4043589578085674e-05 1.2834924371678619e-04 0.0000000000000000e+00  1.0042263086869102e-04 1.2450479796397045e-04 0.0000000000000000e+00  1.2560475646951260e-04 8.3152492374143687e-05 0.0000000000000000e+00  1.0584903352251150e-04 8.2874643852550681e-05 0.0000000000000000e+00  1.2944272068220837e-04 6.1870754338270981e-05 0.0000000000000000e+00  1.6944867113384470e-04 1.5376812607808472e-05 0.0000000000000000e+00  1.2250235975004813e-05 1.8087275517874283e-04 0.0000000000000000e+00  1.6580240676113578e-05 1.6774940952448588e-04 0.0000000000000000e+00  1.2219401832032435e-04 1.0347434847469605e-04 0.0000000000000000e+00  6.1294236760917268e-05 7.9695760643331025e-05 0.0000000000000000e+00  1.4955519715035279e-04 6.7788363851400447e-05 0.0000000000000000e+00  1.7324706885209539e-05 1.4571337677292577e-04 0.0000000000000000e+00  3.4420892591717721e-05 1.4335914865365785e-04 0.0000000000000000e+00  4.2972609925748384e-05 1.7361994339153057e-05 0.0000000000000000e+00  1.7389671083694077e-05 4.3048633181991043e-05 0.0000000000000000e+00  4.6406908711050339e-05 5.1785924066416227e-05 0.0000000000000000e+00  6.8135749814636552e-05 3.7652842384017540e-05 0.0000000000000000e+00  1.2241220351531427e-04 1.2384953237736600e-04 0.0000000000000000e+00  9.1595770311487428e-05 3.9976803677183971e-05 0.0000000000000000e+00  7.5627033975803033e-05 1.6206910395172335e-05 0.0000000000000000e+00  1.0490824647525024e-04 1.0438984282863011e-04 0.0000000000000000e+00  0.0000000000000000e+00 6.0567423234238310e-05 0.0000000000000000e+00  1.0358440103804124e-04 1.4156022952049689e-04 0.0000000000000000e+00  1.2033188543604281e-04 1.3774511349697740e-04 0.0000000000000000e+00  1.1590832841483440e-05 1.5685008640185520e-04 0.0000000000000000e+00  9.2842772113426868e-05 1.6864500687274830e-05 0.0000000000000000e+00  1.3199550275989734e-04 1.5135055880913593e-05 0.0000000000000000e+00  1.4357546575666650e-04 8.5529980196413145e-05 0.0000000000000000e+00  1.6389949502500261e-04 6.9892374708049935e-05 0.0000000000000000e+00  1.7739150064528908e-04 5.9769915583429660e-05 0.0000000000000000e+00  1.7463351033537337e-04 8.1880338326875476e-05 0.0000000000000000e+00  1.6223296233599502e-04 8.9031292091334364e-05 0.0000000000000000e+00  3.3238951804473639e-05 1.2019514305670801e-04 0.0000000000000000e+00  2.8503651377547527e-05 1.0432958475107616e-04 0.0000000000000000e+00  8.8111497673961799e-05 5.5390134316138395e-05 0.0000000000000000e+00  1.4130573083980471e-04 1.0982696366496959e-04 0.0000000000000000e+00  9.1069324332313520e-05 1.4880143978805713e-04 0.0000000000000000e+00  1.0913757416109196e-04 1.6036128264299425e-04 0.0000000000000000e+00  4.3740384756201981e-05 1.5044444147124081e-04 0.0000000000000000e+00  1.5550294175088839e-04 4.5350055599817229e-05 0.0000000000000000e+00  5.6564564403737480e-05 9.9664718678403857e-05 0.0000000000000000e+00  1.5813667229697188e-04 1.2127084296694021e-04 0.0000000000000000e+00  1.1418501310255394e-05 1.3587758633956795e-04 0.0000000000000000e+00  5.9772874120841969e-05 1.7739206173289981e-04 0.0000000000000000e+00  8.0266361007836154e-05 1.4570766382967178e-04 0.0000000000000000e+00  7.5954207367651586e-05 1.6639729027909513e-04 0.0000000000000000e+00  8.7928575239574130e-05 1.6372339956907079e-04 0.0000000000000000e+00  6.2054897552984626e-05 6.6995437816916190e-05 0.0000000000000000e+00  0.0000000000000000e+00 8.2355079969421811e-05 0.0000000000000000e+00  1.4304343870830662e-05 8.7127810324968402e-05 0.0000000000000000e+00  1.7042490575609569e-04 2.9375111346039301e-05 0.0000000000000000e+00  3.5682780515397378e-05 6.7989652457974261e-05 0.0000000000000000e+00  3.9842567782717553e-05 8.3401135646956541e-05 0.0000000000000000e+00  1.0211893356172042e-04 0.0000000000000000e+00 0.0000000000000000e+00  0.0000000000000000e+00 1.2066751767970675e-04 0.0000000000000000e+00  5.3143670369021825e-05 1.6917054713268655e-04 0.0000000000000000e+00  9.1263854784108631e-05 8.4658435886843643e-05 0.0000000000000000e+00  1.4652961365245257e-05 5.7501578945452509e-05 0.0000000000000000e+00  1.5576034048193699e-05 1.2581220051838217e-04 0.0000000000000000e+00  1.0261780890380177e-04 1.7190975881660155e-04 0.0000000000000000e+00  1.3060899631328732e-04 1.5916677744565478e-04 0.0000000000000000e+00  6.3391087607284142e-05 1.1968193536034039e-04 0.0000000000000000e+00  7.9765014474691458e-05 9.0788004446787162e-05 0.0000000000000000e+00  8.7275849750069551e-05 6.7599204777254657e-05 0.0000000000000000e+00  1.4943094015333188e-04 5.5989907452907741e-05 0.0000000000000000e+00  1.0722799491408656e-04 1.1817142595496135e-05 0.0000000000000000e+00  5.0261306275655417e-05 1.1595234365768527e-04 0.0000000000000000e+00  9.8292463681744679e-05 6.1315226727496944e-05 0.0000000000000000e+00  3.8134208036178031e-05 1.5958469578002284e-04 0.0000000000000000e+00  1.0820311315730774e-04 7.1675663639264941e-05 0.0000000000000000e+00  8.3339540394597718e-05 1.1060888152842282e-04 0.0000000000000000e+00  1.6923726029859123e-04 5.3299937064161908e-05 0.0000000000000000e+00  1.6139330371182448e-04 1.1168134432832669e-04 0.0000000000000000e+00  8.1877315879536479e-05 1.7463595540000566e-04 0.0000000000000000e+00  1.8087124452522958e-04 1.2246354742929130e-05 0.0000000000000000e+00  1.6850472199264098e-04 1.4072391542476579e-04 0.0000000000000000e+00  1.7191438469206939e-04 1.0262203944481029e-04 0.0000000000000000e+00  1.4072352010945246e-04 1.6850446966144419e-04 0.0000000000000000e+00  1.2211443073034090e-04 1.6974247067865996e-04 0.0000000000000000e+00  3.6433821356544053e-05 1.7962645751848586e-04 0.0000000000000000e+00  1.6819102073401923e-04 1.5900941418464391e-04 0.0000000000000000e+00  1.5900871573436572e-04 1.6819105045433246e-04 0.0000000000000000e+00  1.7962491526058856e-04 3.6437192031469939e-05 0.0000000000000000e+00  1.5975990610209869e-04 1.3059814753995502e-04 0.0000000000000000e+00  7.1301381408473490e-05 1.5219146891994056e-04 0.0000000000000000e+00  1.3844719305164757e-04 0.0000000000000000e+00 0.0000000000000000e+00  1.5908764284491581e-04 1.4963958122820732e-04 0.0000000000000000e+00  1.4963116608995196e-04 1.5870765991807026e-04 0.0000000000000000e+00  1.3500327777824861e-04 1.0299217489478017e-04 0.0000000000000000e+00  1.4120078235978152e-04 1.3082867813426376e-04 0.0000000000000000e+00  0.0000000000000000e+00 1.7269024142641887e-04 0.0000000000000000e+00  1.1548993281907211e-04 8.3527799547797953e-05 0.0000000000000000e+00  1.5016194266338184e-04 1.4042178766230566e-04 0.0000000000000000e+00  1.1240565152196288e-04 4.8935482798516977e-05 0.0000000000000000e+00  1.2198163701193270e-04 1.4993620353712260e-04 0.0000000000000000e+00  1.2910844921294081e-04 1.4059209210347213e-04 0.0000000000000000e+00  1.4051764951375961e-04 1.4926218636996603e-04 0.0000000000000000e+00  1.0209142382812548e-04 3.6496381338485038e-05 0.0000000000000000e+00  1.4268341082177992e-04 1.0371746335877275e-05 0.0000000000000000e+00  1.3184608572363571e-04 1.2180668610990919e-04 0.0000000000000000e+00  1.2072788680039021e-04 1.1323533948953682e-04 0.0000000000000000e+00  1.1825313002929427e-04 6.2064253715415668e-05 0.0000000000000000e+00  1.3118814868426793e-04 5.0972018553804244e-05 0.0000000000000000e+00  1.2337190971707703e-04 3.9795970647013687e-05 0.0000000000000000e+00  6.1987658808293741e-05 1.3940742220367570e-04 0.0000000000000000e+00  7.3729639752372875e-05 1.2921212305584627e-04 0.0000000000000000e+00  1.0475956439642851e-04 9.4669320614706860e-05 0.0000000000000000e+00  1.2396156350624849e-04 9.3329347914678309e-05 0.0000000000000000e+00  1.2753955426789257e-04 7.2731264590530684e-05 0.0000000000000000e+00  1.3865751854456402e-04 6.2000968969209329e-05 0.0000000000000000e+00  1.3517969794026160e-04 8.2938423574462029e-05 0.0000000000000000e+00  3.7664432511336530e-05 9.6646388018377285e-05 0.0000000000000000e+00  4.0541475139507210e-05 4.1265035414849532e-05 0.0000000000000000e+00  1.5109433804377787e-04 2.5858572258461082e-05 0.0000000000000000e+00  1.3391285487678143e-04 2.6012269586213160e-05 0.0000000000000000e+00  8.2355312629904041e-05 0.0000000000000000e+00 0.0000000000000000e+00  4.2334938987970892e-05 1.3572279082823993e-04 0.0000000000000000e+00  0.0000000000000000e+00 3.4694026775610656e-05 0.0000000000000000e+00  1.1561418772091209e-04 2.6587060691332935e-05 0.0000000000000000e+00  3.4677283433274308e-05 0.0000000000000000e+00 0.0000000000000000e+00  9.4808545269838495e-05 2.8355603847039356e-05 0.0000000000000000e+00  5.2294527461732811e-05 1.3088024902009051e-04 0.0000000000000000e+00  8.5043548431580157e-05 1.1923179801982268e-04 0.0000000000000000e+00  7.1427379082242558e-05 8.1015039432832971e-05 0.0000000000000000e+00  1.7268558530931784e-04 0.0000000000000000e+00 0.0000000000000000e+00  1.2066520768167918e-04 0.0000000000000000e+00 0.0000000000000000e+00  0.0000000000000000e+00 1.0211946482583118e-04 0.0000000000000000e+00  6.0569404911280431e-05 0.0000000000000000e+00 0.0000000000000000e+00  0.0000000000000000e+00 1.5574177648411240e-04 0.0000000000000000e+00  1.5573998638664723e-04 0.0000000000000000e+00 0.0000000000000000e+00  0.0000000000000000e+00 1.3844789949253984e-04 0.0000000000000000e+00  1.4038391935411896e-04 3.2469526547827004e-05 0.0000000000000000e+00  1.0193318499613151e-04 1.3335552604483292e-04 0.0000000000000000e+00  1.1372616189415177e-04 1.2203114571159940e-04 0.0000000000000000e+00  8.3496126662399958e-05 1.3710932644527964e-04 0.0000000000000000e+00  1.6295982532121833e-04 7.9572729718362968e-05 0.0000000000000000e+00  6.2413686065916318e-05 2.8241412255319054e-05 0.0000000000000000e+00  1.5003141456838175e-04 1.1997510960876147e-04 0.0000000000000000e+00  1.0248641063192981e-04 1.1339001225136531e-04 0.0000000000000000e+00  9.1986280673386845e-05 1.0442620702939054e-04 0.0000000000000000e+00  9.6703531236822851e-06 1.1600783251877812e-04 0.0000000000000000e+00  5.1856228558817054e-05 6.1237707102309455e-05 0.0000000000000000e+00  7.1092231569693057e-05 1.1182812046866513e-04 0.0000000000000000e+00  6.6260322486944950e-05 1.0068694368503542e-04 0.0000000000000000e+00  1.1348570733593021e-04 1.0479872894427938e-04 0.0000000000000000e+00  1.0372218687987576e-04 1.5021779164601476e-04 0.0000000000000000e+00  1.7494531786897035e-05 2.9625942430026161e-05 0.0000000000000000e+00  1.2507128688069770e-04 9.1678000430461878e-06 0.0000000000000000e+00  5.8541763980543122e-05 4.4040221678408518e-05 0.0000000000000000e+00  7.1359805468617876e-05 5.7053365012948446e-05 0.0000000000000000e+00  1.5621075827026464e-04 9.6227145723309151e-05 0.0000000000000000e+00  9.6530273405160774e-05 1.6580116312613330e-04 0.0000000000000000e+00  2.9589466868492234e-05 1.7487143452016749e-05 0.0000000000000000e+00  9.9837898468209509